<VTKFile type="UnstructuredGrid"  version="0.1"   >
<UnstructuredGrid>
<Piece  NumberOfPoints="45" NumberOfCells="32">
<Points>
<DataArray  type="Float64"  NumberOfComponents="3"  format="ascii" >
0 0 0
0 2.5 0
0 5 0
0 7.5 0
0 10 0
5 0 0
5 2.5 0
5 5 0
5 7.5 0
5 10 0
10 0 0
10 2.5 0
10 5 0
10 7.5 0
10 10 0
15 0 0
15 2.5 0
15 5 0
15 7.5 0
15 10 0
20 0 0
20 2.5 0
20 5 0
20 7.5 0
20 10 0
25 0 0
25 2.5 0
25 5 0
25 7.5 0
25 10 0
30 0 0
30 2.5 0
30 5 0
30 7.5 0
30 10 0
35 0 0
35 2.5 0
35 5 0
35 7.5 0
35 10 0
40 0 0
40 2.5 0
40 5 0
40 7.5 0
40 10 0
</DataArray>
</Points>
<Cells>
<DataArray  type="Int32"  Name="connectivity"  format="ascii">
0 5 6 1 
1 6 7 2 
2 7 8 3 
3 8 9 4 
5 10 11 6 
6 11 12 7 
7 12 13 8 
8 13 14 9 
10 15 16 11 
11 16 17 12 
12 17 18 13 
13 18 19 14 
15 20 21 16 
16 21 22 17 
17 22 23 18 
18 23 24 19 
20 25 26 21 
21 26 27 22 
22 27 28 23 
23 28 29 24 
25 30 31 26 
26 31 32 27 
27 32 33 28 
28 33 34 29 
30 35 36 31 
31 36 37 32 
32 37 38 33 
33 38 39 34 
35 40 41 36 
36 41 42 37 
37 42 43 38 
38 43 44 39 
</DataArray>
<DataArray  type="Int32"  Name="offsets"  format="ascii">
4
8
12
16
20
24
28
32
36
40
44
48
52
56
60
64
68
72
76
80
84
88
92
96
100
104
108
112
116
120
124
128
</DataArray>
<DataArray  type="UInt8"  Name="types"  format="ascii">
9
9
9
9
9
9
9
9
9
9
9
9
9
9
9
9
9
9
9
9
9
9
9
9
9
9
9
9
9
9
9
9
</DataArray>
</Cells>
<PointData  Vectors="U">
<DataArray  type="Float64"  Name="U" NumberOfComponents="3" format="ascii">
0 0 0.0
0 0 0.0
0 0 0.0
0 0 0.0
0 0 0.0
-0.113043446612632 -0.0827584272133786 0.0
-0.053491328425666 -0.0695710482437859 0.0
-1.90819582357449E-17 -0.0654266300941524 0.0
0.053491328425666 -0.069571048243786 0.0
0.113043446612632 -0.0827584272133785 0.0
-0.209878639786505 -0.255424851647876 0.0
-0.103044452691516 -0.245683938315548 0.0
-5.3776427755281E-17 -0.242299971736067 0.0
0.103044452691516 -0.245683938315548 0.0
0.209878639786505 -0.255424851647876 0.0
-0.29254987708661 -0.519774134291255 0.0
-0.14401355004638 -0.51121477913206 0.0
-8.67361737988404E-17 -0.508432011306201 0.0
0.144013550046379 -0.51121477913206 0.0
0.29254987708661 -0.519774134291255 0.0
-0.359979377785635 -0.858687733121765 0.0
-0.177878710869785 -0.85196934821836 0.0
-1.6306400674182E-16 -0.84969483285298 0.0
0.177878710869785 -0.85196934821836 0.0
0.359979377785635 -0.858687733121764 0.0
-0.412520397112951 -1.25769006887953 0.0
-0.204067112449334 -1.25263633172928 0.0
-4.71844785465692E-16 -1.25097235142367 0.0
0.204067112449333 -1.25263633172928 0.0
0.412520397112951 -1.25769006887953 0.0
-0.449975123015578 -1.7017664788883 0.0
-0.222889123748383 -1.6983325320572 0.0
-4.85722573273506E-16 -1.69715907587258 0.0
0.222889123748383 -1.6983325320572 0.0
0.449975123015578 -1.70176647888831 0.0
-0.472574631485419 -2.17545241097941 0.0
-0.233966513283338 -2.17400569490825 0.0
-1.42247325030098E-16 -2.17364805695525 0.0
0.233966513283337 -2.17400569490825 0.0
0.472574631485418 -2.17545241097941 0.0
-0.481234435380685 -2.66710696029431 0.0
-0.237614500177046 -2.66512661059231 0.0
0 -2.66369484883003 0.0
0.237614500177046 -2.66512661059231 0.0
0.481234435380684 -2.66710696029431 0.0
</DataArray>
</PointData>
</Piece>
</UnstructuredGrid>
</VTKFile>
