<VTKFile type="UnstructuredGrid"  version="0.1"   >
<UnstructuredGrid>
<Piece  NumberOfPoints="1089" NumberOfCells="1024">
<Points>
<DataArray  type="Float64"  NumberOfComponents="3"  format="ascii" >
0 0 0
0 3.125 0
0 6.25 0
0 9.375 0
0 12.5 0
0 15.625 0
0 18.75 0
0 21.875 0
0 25 0
0 28.125 0
0 31.25 0
0 34.375 0
0 37.5 0
0 40.625 0
0 43.75 0
0 46.875 0
0 50 0
0 53.125 0
0 56.25 0
0 59.375 0
0 62.5 0
0 65.625 0
0 68.75 0
0 71.875 0
0 75 0
0 78.125 0
0 81.25 0
0 84.375 0
0 87.5 0
0 90.625 0
0 93.75 0
0 96.875 0
0 100 0
3.125 0 0
3.125 3.125 0
3.125 6.25 0
3.125 9.375 0
3.125 12.5 0
3.125 15.625 0
3.125 18.75 0
3.125 21.875 0
3.125 25 0
3.125 28.125 0
3.125 31.25 0
3.125 34.375 0
3.125 37.5 0
3.125 40.625 0
3.125 43.75 0
3.125 46.875 0
3.125 50 0
3.125 53.125 0
3.125 56.25 0
3.125 59.375 0
3.125 62.5 0
3.125 65.625 0
3.125 68.75 0
3.125 71.875 0
3.125 75 0
3.125 78.125 0
3.125 81.25 0
3.125 84.375 0
3.125 87.5 0
3.125 90.625 0
3.125 93.75 0
3.125 96.875 0
3.125 100 0
6.25 0 0
6.25 3.125 0
6.25 6.25 0
6.25 9.375 0
6.25 12.5 0
6.25 15.625 0
6.25 18.75 0
6.25 21.875 0
6.25 25 0
6.25 28.125 0
6.25 31.25 0
6.25 34.375 0
6.25 37.5 0
6.25 40.625 0
6.25 43.75 0
6.25 46.875 0
6.25 50 0
6.25 53.125 0
6.25 56.25 0
6.25 59.375 0
6.25 62.5 0
6.25 65.625 0
6.25 68.75 0
6.25 71.875 0
6.25 75 0
6.25 78.125 0
6.25 81.25 0
6.25 84.375 0
6.25 87.5 0
6.25 90.625 0
6.25 93.75 0
6.25 96.875 0
6.25 100 0
9.375 0 0
9.375 3.125 0
9.375 6.25 0
9.375 9.375 0
9.375 12.5 0
9.375 15.625 0
9.375 18.75 0
9.375 21.875 0
9.375 25 0
9.375 28.125 0
9.375 31.25 0
9.375 34.375 0
9.375 37.5 0
9.375 40.625 0
9.375 43.75 0
9.375 46.875 0
9.375 50 0
9.375 53.125 0
9.375 56.25 0
9.375 59.375 0
9.375 62.5 0
9.375 65.625 0
9.375 68.75 0
9.375 71.875 0
9.375 75 0
9.375 78.125 0
9.375 81.25 0
9.375 84.375 0
9.375 87.5 0
9.375 90.625 0
9.375 93.75 0
9.375 96.875 0
9.375 100 0
12.5 0 0
12.5 3.125 0
12.5 6.25 0
12.5 9.375 0
12.5 12.5 0
12.5 15.625 0
12.5 18.75 0
12.5 21.875 0
12.5 25 0
12.5 28.125 0
12.5 31.25 0
12.5 34.375 0
12.5 37.5 0
12.5 40.625 0
12.5 43.75 0
12.5 46.875 0
12.5 50 0
12.5 53.125 0
12.5 56.25 0
12.5 59.375 0
12.5 62.5 0
12.5 65.625 0
12.5 68.75 0
12.5 71.875 0
12.5 75 0
12.5 78.125 0
12.5 81.25 0
12.5 84.375 0
12.5 87.5 0
12.5 90.625 0
12.5 93.75 0
12.5 96.875 0
12.5 100 0
15.625 0 0
15.625 3.125 0
15.625 6.25 0
15.625 9.375 0
15.625 12.5 0
15.625 15.625 0
15.625 18.75 0
15.625 21.875 0
15.625 25 0
15.625 28.125 0
15.625 31.25 0
15.625 34.375 0
15.625 37.5 0
15.625 40.625 0
15.625 43.75 0
15.625 46.875 0
15.625 50 0
15.625 53.125 0
15.625 56.25 0
15.625 59.375 0
15.625 62.5 0
15.625 65.625 0
15.625 68.75 0
15.625 71.875 0
15.625 75 0
15.625 78.125 0
15.625 81.25 0
15.625 84.375 0
15.625 87.5 0
15.625 90.625 0
15.625 93.75 0
15.625 96.875 0
15.625 100 0
18.75 0 0
18.75 3.125 0
18.75 6.25 0
18.75 9.375 0
18.75 12.5 0
18.75 15.625 0
18.75 18.75 0
18.75 21.875 0
18.75 25 0
18.75 28.125 0
18.75 31.25 0
18.75 34.375 0
18.75 37.5 0
18.75 40.625 0
18.75 43.75 0
18.75 46.875 0
18.75 50 0
18.75 53.125 0
18.75 56.25 0
18.75 59.375 0
18.75 62.5 0
18.75 65.625 0
18.75 68.75 0
18.75 71.875 0
18.75 75 0
18.75 78.125 0
18.75 81.25 0
18.75 84.375 0
18.75 87.5 0
18.75 90.625 0
18.75 93.75 0
18.75 96.875 0
18.75 100 0
21.875 0 0
21.875 3.125 0
21.875 6.25 0
21.875 9.375 0
21.875 12.5 0
21.875 15.625 0
21.875 18.75 0
21.875 21.875 0
21.875 25 0
21.875 28.125 0
21.875 31.25 0
21.875 34.375 0
21.875 37.5 0
21.875 40.625 0
21.875 43.75 0
21.875 46.875 0
21.875 50 0
21.875 53.125 0
21.875 56.25 0
21.875 59.375 0
21.875 62.5 0
21.875 65.625 0
21.875 68.75 0
21.875 71.875 0
21.875 75 0
21.875 78.125 0
21.875 81.25 0
21.875 84.375 0
21.875 87.5 0
21.875 90.625 0
21.875 93.75 0
21.875 96.875 0
21.875 100 0
25 0 0
25 3.125 0
25 6.25 0
25 9.375 0
25 12.5 0
25 15.625 0
25 18.75 0
25 21.875 0
25 25 0
25 28.125 0
25 31.25 0
25 34.375 0
25 37.5 0
25 40.625 0
25 43.75 0
25 46.875 0
25 50 0
25 53.125 0
25 56.25 0
25 59.375 0
25 62.5 0
25 65.625 0
25 68.75 0
25 71.875 0
25 75 0
25 78.125 0
25 81.25 0
25 84.375 0
25 87.5 0
25 90.625 0
25 93.75 0
25 96.875 0
25 100 0
28.125 0 0
28.125 3.125 0
28.125 6.25 0
28.125 9.375 0
28.125 12.5 0
28.125 15.625 0
28.125 18.75 0
28.125 21.875 0
28.125 25 0
28.125 28.125 0
28.125 31.25 0
28.125 34.375 0
28.125 37.5 0
28.125 40.625 0
28.125 43.75 0
28.125 46.875 0
28.125 50 0
28.125 53.125 0
28.125 56.25 0
28.125 59.375 0
28.125 62.5 0
28.125 65.625 0
28.125 68.75 0
28.125 71.875 0
28.125 75 0
28.125 78.125 0
28.125 81.25 0
28.125 84.375 0
28.125 87.5 0
28.125 90.625 0
28.125 93.75 0
28.125 96.875 0
28.125 100 0
31.25 0 0
31.25 3.125 0
31.25 6.25 0
31.25 9.375 0
31.25 12.5 0
31.25 15.625 0
31.25 18.75 0
31.25 21.875 0
31.25 25 0
31.25 28.125 0
31.25 31.25 0
31.25 34.375 0
31.25 37.5 0
31.25 40.625 0
31.25 43.75 0
31.25 46.875 0
31.25 50 0
31.25 53.125 0
31.25 56.25 0
31.25 59.375 0
31.25 62.5 0
31.25 65.625 0
31.25 68.75 0
31.25 71.875 0
31.25 75 0
31.25 78.125 0
31.25 81.25 0
31.25 84.375 0
31.25 87.5 0
31.25 90.625 0
31.25 93.75 0
31.25 96.875 0
31.25 100 0
34.375 0 0
34.375 3.125 0
34.375 6.25 0
34.375 9.375 0
34.375 12.5 0
34.375 15.625 0
34.375 18.75 0
34.375 21.875 0
34.375 25 0
34.375 28.125 0
34.375 31.25 0
34.375 34.375 0
34.375 37.5 0
34.375 40.625 0
34.375 43.75 0
34.375 46.875 0
34.375 50 0
34.375 53.125 0
34.375 56.25 0
34.375 59.375 0
34.375 62.5 0
34.375 65.625 0
34.375 68.75 0
34.375 71.875 0
34.375 75 0
34.375 78.125 0
34.375 81.25 0
34.375 84.375 0
34.375 87.5 0
34.375 90.625 0
34.375 93.75 0
34.375 96.875 0
34.375 100 0
37.5 0 0
37.5 3.125 0
37.5 6.25 0
37.5 9.375 0
37.5 12.5 0
37.5 15.625 0
37.5 18.75 0
37.5 21.875 0
37.5 25 0
37.5 28.125 0
37.5 31.25 0
37.5 34.375 0
37.5 37.5 0
37.5 40.625 0
37.5 43.75 0
37.5 46.875 0
37.5 50 0
37.5 53.125 0
37.5 56.25 0
37.5 59.375 0
37.5 62.5 0
37.5 65.625 0
37.5 68.75 0
37.5 71.875 0
37.5 75 0
37.5 78.125 0
37.5 81.25 0
37.5 84.375 0
37.5 87.5 0
37.5 90.625 0
37.5 93.75 0
37.5 96.875 0
37.5 100 0
40.625 0 0
40.625 3.125 0
40.625 6.25 0
40.625 9.375 0
40.625 12.5 0
40.625 15.625 0
40.625 18.75 0
40.625 21.875 0
40.625 25 0
40.625 28.125 0
40.625 31.25 0
40.625 34.375 0
40.625 37.5 0
40.625 40.625 0
40.625 43.75 0
40.625 46.875 0
40.625 50 0
40.625 53.125 0
40.625 56.25 0
40.625 59.375 0
40.625 62.5 0
40.625 65.625 0
40.625 68.75 0
40.625 71.875 0
40.625 75 0
40.625 78.125 0
40.625 81.25 0
40.625 84.375 0
40.625 87.5 0
40.625 90.625 0
40.625 93.75 0
40.625 96.875 0
40.625 100 0
43.75 0 0
43.75 3.125 0
43.75 6.25 0
43.75 9.375 0
43.75 12.5 0
43.75 15.625 0
43.75 18.75 0
43.75 21.875 0
43.75 25 0
43.75 28.125 0
43.75 31.25 0
43.75 34.375 0
43.75 37.5 0
43.75 40.625 0
43.75 43.75 0
43.75 46.875 0
43.75 50 0
43.75 53.125 0
43.75 56.25 0
43.75 59.375 0
43.75 62.5 0
43.75 65.625 0
43.75 68.75 0
43.75 71.875 0
43.75 75 0
43.75 78.125 0
43.75 81.25 0
43.75 84.375 0
43.75 87.5 0
43.75 90.625 0
43.75 93.75 0
43.75 96.875 0
43.75 100 0
46.875 0 0
46.875 3.125 0
46.875 6.25 0
46.875 9.375 0
46.875 12.5 0
46.875 15.625 0
46.875 18.75 0
46.875 21.875 0
46.875 25 0
46.875 28.125 0
46.875 31.25 0
46.875 34.375 0
46.875 37.5 0
46.875 40.625 0
46.875 43.75 0
46.875 46.875 0
46.875 50 0
46.875 53.125 0
46.875 56.25 0
46.875 59.375 0
46.875 62.5 0
46.875 65.625 0
46.875 68.75 0
46.875 71.875 0
46.875 75 0
46.875 78.125 0
46.875 81.25 0
46.875 84.375 0
46.875 87.5 0
46.875 90.625 0
46.875 93.75 0
46.875 96.875 0
46.875 100 0
50 0 0
50 3.125 0
50 6.25 0
50 9.375 0
50 12.5 0
50 15.625 0
50 18.75 0
50 21.875 0
50 25 0
50 28.125 0
50 31.25 0
50 34.375 0
50 37.5 0
50 40.625 0
50 43.75 0
50 46.875 0
50 50 0
50 53.125 0
50 56.25 0
50 59.375 0
50 62.5 0
50 65.625 0
50 68.75 0
50 71.875 0
50 75 0
50 78.125 0
50 81.25 0
50 84.375 0
50 87.5 0
50 90.625 0
50 93.75 0
50 96.875 0
50 100 0
53.125 0 0
53.125 3.125 0
53.125 6.25 0
53.125 9.375 0
53.125 12.5 0
53.125 15.625 0
53.125 18.75 0
53.125 21.875 0
53.125 25 0
53.125 28.125 0
53.125 31.25 0
53.125 34.375 0
53.125 37.5 0
53.125 40.625 0
53.125 43.75 0
53.125 46.875 0
53.125 50 0
53.125 53.125 0
53.125 56.25 0
53.125 59.375 0
53.125 62.5 0
53.125 65.625 0
53.125 68.75 0
53.125 71.875 0
53.125 75 0
53.125 78.125 0
53.125 81.25 0
53.125 84.375 0
53.125 87.5 0
53.125 90.625 0
53.125 93.75 0
53.125 96.875 0
53.125 100 0
56.25 0 0
56.25 3.125 0
56.25 6.25 0
56.25 9.375 0
56.25 12.5 0
56.25 15.625 0
56.25 18.75 0
56.25 21.875 0
56.25 25 0
56.25 28.125 0
56.25 31.25 0
56.25 34.375 0
56.25 37.5 0
56.25 40.625 0
56.25 43.75 0
56.25 46.875 0
56.25 50 0
56.25 53.125 0
56.25 56.25 0
56.25 59.375 0
56.25 62.5 0
56.25 65.625 0
56.25 68.75 0
56.25 71.875 0
56.25 75 0
56.25 78.125 0
56.25 81.25 0
56.25 84.375 0
56.25 87.5 0
56.25 90.625 0
56.25 93.75 0
56.25 96.875 0
56.25 100 0
59.375 0 0
59.375 3.125 0
59.375 6.25 0
59.375 9.375 0
59.375 12.5 0
59.375 15.625 0
59.375 18.75 0
59.375 21.875 0
59.375 25 0
59.375 28.125 0
59.375 31.25 0
59.375 34.375 0
59.375 37.5 0
59.375 40.625 0
59.375 43.75 0
59.375 46.875 0
59.375 50 0
59.375 53.125 0
59.375 56.25 0
59.375 59.375 0
59.375 62.5 0
59.375 65.625 0
59.375 68.75 0
59.375 71.875 0
59.375 75 0
59.375 78.125 0
59.375 81.25 0
59.375 84.375 0
59.375 87.5 0
59.375 90.625 0
59.375 93.75 0
59.375 96.875 0
59.375 100 0
62.5 0 0
62.5 3.125 0
62.5 6.25 0
62.5 9.375 0
62.5 12.5 0
62.5 15.625 0
62.5 18.75 0
62.5 21.875 0
62.5 25 0
62.5 28.125 0
62.5 31.25 0
62.5 34.375 0
62.5 37.5 0
62.5 40.625 0
62.5 43.75 0
62.5 46.875 0
62.5 50 0
62.5 53.125 0
62.5 56.25 0
62.5 59.375 0
62.5 62.5 0
62.5 65.625 0
62.5 68.75 0
62.5 71.875 0
62.5 75 0
62.5 78.125 0
62.5 81.25 0
62.5 84.375 0
62.5 87.5 0
62.5 90.625 0
62.5 93.75 0
62.5 96.875 0
62.5 100 0
65.625 0 0
65.625 3.125 0
65.625 6.25 0
65.625 9.375 0
65.625 12.5 0
65.625 15.625 0
65.625 18.75 0
65.625 21.875 0
65.625 25 0
65.625 28.125 0
65.625 31.25 0
65.625 34.375 0
65.625 37.5 0
65.625 40.625 0
65.625 43.75 0
65.625 46.875 0
65.625 50 0
65.625 53.125 0
65.625 56.25 0
65.625 59.375 0
65.625 62.5 0
65.625 65.625 0
65.625 68.75 0
65.625 71.875 0
65.625 75 0
65.625 78.125 0
65.625 81.25 0
65.625 84.375 0
[...]
<PointData  Vectors="U">
<DataArray  type="Float64"  Name="U" NumberOfComponents="3" format="ascii">
0 0 0
0 0 0
0 0 0
0 0 0
0 0 0
0 0 0
0 0 0
0 0 0
0 0 0
0 0 0
0 0 0
0 0 0
0 0 0
0 0 0
0 0 0
0 0 0
0 0 0
0 0 0
0 0 0
0 0 0
0 0 0
0 0 0
0 0 0
0 0 0
0 0 0
0 0 0
0 0 0
0 0 0
0 0 0
0 0 0
0 0 0
0 0 0
0 0 0
0 0 0
0 0 -0.00539004500259055
0 0 -0.0106662750264719
0 0 -0.0157533361870668
0 0 -0.0205967951323146
0 0 -0.0251548142896207
0 0 -0.0293943613181746
0 0 -0.0332890648560917
0 0 -0.0368177711863606
0 0 -0.039963520813247
0 0 -0.0427127722952431
0 0 -0.0450548044445357
0 0 -0.0469812461500667
0 0 -0.0484857085292751
0 0 -0.0495635005857998
0 0 -0.0502114175085159
0 0 -0.0504275939123791
0 0 -0.0502114175085157
0 0 -0.0495635005857994
0 0 -0.0484857085292744
0 0 -0.0469812461500658
0 0 -0.0450548044445347
0 0 -0.042712772295242
0 0 -0.0399635208132459
0 0 -0.0368177711863596
0 0 -0.0332890648560907
0 0 -0.0293943613181736
0 0 -0.0251548142896198
0 0 -0.0205967951323139
0 0 -0.0157533361870662
0 0 -0.0106662750264715
0 0 -0.00539004500259033
0 0 0
0 0 0
0 0 -0.010666275026472
0 0 -0.0211204395474471
0 0 -0.031210157575636
0 0 -0.040823771735607
0 0 -0.0498756001932097
0 0 -0.0582982741735621
0 0 -0.0660381482982445
0 0 -0.073052290248988
0 0 -0.0793063293570166
0 0 -0.0847728553684996
0 0 -0.0894301842394189
0 0 -0.093261396225063
0 0 -0.0962535839130005
0 0 -0.0983972734337838
0 0 -0.0996859938716393
0 0 -0.100115979357481
0 0 -0.0996859938716389
0 0 -0.0983972734337829
0 0 -0.0962535839129991
0 0 -0.0932613962250614
0 0 -0.0894301842394171
0 0 -0.0847728553684975
0 0 -0.0793063293570145
0 0 -0.0730522902489859
0 0 -0.0660381482982426
0 0 -0.0582982741735603
0 0 -0.0498756001932081
0 0 -0.0408237717356055
0 0 -0.0312101575756349
0 0 -0.0211204395474463
0 0 -0.0106662750264716
0 0 0
0 0 0
0 0 -0.0157533361870668
0 0 -0.0312101575756361
0 0 -0.0461454675364858
0 0 -0.0603896023428211
0 0 -0.0738113392727099
0 0 -0.0863073878351934
0 0 -0.0977955818143526
0 0 -0.108210250946796
0 0 -0.117498890453866
0 0 -0.125619673756338
0 0 -0.132539542096789
0 0 -0.138232718204422
0 0 -0.142679548342411
0 0 -0.145865612678393
0 0 -0.147781064876065
0 0 -0.148420175695488
0 0 -0.147781064876065
0 0 -0.145865612678392
0 0 -0.142679548342409
0 0 -0.13823271820442
0 0 -0.132539542096786
0 0 -0.125619673756335
0 0 -0.117498890453863
0 0 -0.108210250946793
0 0 -0.0977955818143498
0 0 -0.0863073878351907
0 0 -0.0738113392727075
0 0 -0.0603896023428191
0 0 -0.0461454675364842
0 0 -0.031210157575635
0 0 -0.0157533361870662
0 0 0
0 0 0
0 0 -0.0205967951323148
0 0 -0.0408237717356072
0 0 -0.0603896023428214
0 0 -0.0790686418285984
0 0 -0.0966840131711339
0 0 -0.113095666350728
0 0 -0.128191950347608
0 0 -0.14188358055675
0 0 -0.154099183147716
0 0 -0.164781923275007
0 0 -0.173886901058469
0 0 -0.18137912157651
0 0 -0.187231913061635
0 0 -0.191425712340794
0 0 -0.193947163894636
0 0 -0.194788497695156
0 0 -0.193947163894635
0 0 -0.191425712340792
0 0 -0.187231913061633
0 0 -0.181379121576507
0 0 -0.173886901058466
0 0 -0.164781923275003
0 0 -0.154099183147713
0 0 -0.141883580556747
0 0 -0.128191950347605
0 0 -0.113095666350725
0 0 -0.0966840131711311
0 0 -0.0790686418285959
0 0 -0.0603896023428194
0 0 -0.0408237717356059
0 0 -0.0205967951323141
0 0 0
0 0 0
0 0 -0.025154814289621
0 0 -0.0498756001932103
0 0 -0.0738113392727106
0 0 -0.0966840131711344
0 0 -0.118272539438127
0 0 -0.13840037030647
0 0 -0.156926092706719
0 0 -0.173736336208332
0 0 -0.18874035729005
0 0 -0.201865853471328
0 0 -0.213055691592556
0 0 -0.222265339346215
0 0 -0.229460856640597
0 0 -0.234617350338488
0 0 -0.237717827065135
0 0 -0.238752400709754
0 0 -0.237717827065133
0 0 -0.234617350338486
0 0 -0.229460856640594
0 0 -0.222265339346212
0 0 -0.213055691592552
0 0 -0.201865853471324
0 0 -0.188740357290046
0 0 -0.173736336208328
0 0 -0.156926092706715
0 0 -0.138400370306467
0 0 -0.118272539438124
0 0 -0.0966840131711316
0 0 -0.0738113392727083
0 0 -0.0498756001932088
0 0 -0.0251548142896202
0 0 0
0 0 0
0 0 -0.0293943613181751
0 0 -0.0582982741735631
0 0 -0.0863073878351946
0 0 -0.113095666350729
0 0 -0.138400370306471
0 0 -0.162009738756136
0 0 -0.183753113499539
0 0 -0.203493137784045
0 0 -0.221119593095171
0 0 -0.236544520231673
0 0 -0.24969834429149
0 0 -0.260526800596424
0 0 -0.268988514606436
0 0 -0.275053132417089
0 0 -0.278699929358238
0 0 -0.279916847382708
0 0 -0.278699929358237
0 0 -0.275053132417087
0 0 -0.268988514606433
0 0 -0.260526800596421
0 0 -0.249698344291486
0 0 -0.236544520231669
0 0 -0.221119593095167
0 0 -0.20349313778404
0 0 -0.183753113499535
0 0 -0.162009738756132
0 0 -0.138400370306467
0 0 -0.113095666350726
0 0 -0.0863073878351922
0 0 -0.0582982741735614
0 0 -0.0293943613181742
0 0 0
0 0 0
0 0 -0.0332890648560926
0 0 -0.0660381482982461
0 0 -0.0977955818143546
0 0 -0.12819195034761
0 0 -0.156926092706721
0 0 -0.18375311349954
0 0 -0.208474356759622
0 0 -0.230929178840566
0 0 -0.250988246628303
0 0 -0.268548105137059
0 0 -0.283526787816989
0 0 -0.29586029095724
0 0 -0.305499774439982
0 0 -0.31240938678265
0 0 -0.316564640221924
0 0 -0.317951283811127
0 0 -0.316564640221923
0 0 -0.312409386782648
0 0 -0.30549977443998
0 0 -0.295860290957237
0 0 -0.283526787816986
0 0 -0.268548105137056
0 0 -0.250988246628299
0 0 -0.230929178840562
0 0 -0.208474356759618
0 0 -0.183753113499536
0 0 -0.156926092706717
0 0 -0.128191950347607
0 0 -0.0977955818143521
0 0 -0.0660381482982443
0 0 -0.0332890648560916
0 0 0
0 0 0
0 0 -0.0368177711863619
0 0 -0.0730522902489904
0 0 -0.108210250946799
0 0 -0.141883580556754
0 0 -0.173736336208336
0 0 -0.203493137784047
0 0 -0.230929178840567
0 0 -0.255861777970204
0 0 -0.278143313737551
0 0 -0.297655373351536
0 0 -0.31430394443436
0 0 -0.32801550395763
0 0 -0.338733883894831
0 0 -0.346417819617974
0 0 -0.351039109805365
0 0 -0.352581336386514
0 0 -0.351039109805365
0 0 -0.346417819617973
0 0 -0.338733883894829
0 0 -0.328015503957628
0 0 -0.314303944434358
0 0 -0.297655373351534
0 0 -0.278143313737548
0 0 -0.255861777970201
0 0 -0.230929178840564
0 0 -0.203493137784044
0 0 -0.173736336208332
0 0 -0.141883580556751
0 0 -0.108210250946796
0 0 -0.0730522902489884
0 0 -0.0368177711863609
0 0 0
0 0 0
0 0 -0.0399635208132487
0 0 -0.0793063293570199
0 0 -0.11749889045387
0 0 -0.154099183147722
0 0 -0.188740357290055
0 0 -0.221119593095176
0 0 -0.250988246628306
0 0 -0.278143313737553
0 0 -0.302420136001625
0 0 -0.323686246183729
0 0 -0.341836233228212
0 0 -0.356787514684889
0 0 -0.368476917287487
0 0 -0.376857983916473
0 0 -0.38189894228932
0 0 -0.383581287101991
0 0 -0.381898942289319
0 0 -0.376857983916473
0 0 -0.368476917287486
0 0 -0.356787514684889
0 0 -0.341836233228211
0 0 -0.323686246183728
0 0 -0.302420136001623
0 0 -0.278143313737552
0 0 -0.250988246628304
0 0 -0.221119593095173
0 0 -0.188740357290052
0 0 -0.154099183147719
0 0 -0.117498890453868
0 0 -0.079306329357018
0 0 -0.0399635208132477
0 0 0
0 0 0
0 0 -0.0427127722952454
0 0 -0.084772855368504
0 0 -0.125619673756344
0 0 -0.164781923275014
0 0 -0.201865853471336
0 0 -0.23654452023168
0 0 -0.268548105137066
0 0 -0.297655373351541
0 0 -0.323686246183732
0 0 -0.346495435835444
0 0 -0.365967064019427
0 0 -0.382010183353151
0 0 -0.394555123745753
0 0 -0.403550595970222
0 0 -0.408961496335337
0 0 -0.410767369150452
0 0 -0.408961496335337
0 0 -0.403550595970222
0 0 -0.394555123745754
0 0 -0.382010183353152
0 0 -0.365967064019429
0 0 -0.346495435835445
0 0 -0.323686246183732
0 0 -0.297655373351541
0 0 -0.268548105137065
0 0 -0.236544520231678
0 0 -0.201865853471333
0 0 -0.164781923275012
0 0 -0.125619673756342
0 0 -0.0847728553685024
0 0 -0.0427127722952445
0 0 0
0 0 0
0 0 -0.0450548044445387
0 0 -0.0894301842394248
0 0 -0.132539542096797
0 0 -0.173886901058479
0 0 -0.213055691592566
0 0 -0.249698344291501
0 0 -0.283526787816999
0 0 -0.314303944434368
0 0 -0.341836233228218
0 0 -0.36596706401943
0 0 -0.38657127612558
0 0 -0.403550467022431
0 0 -0.416829152768423
0 0 -0.42635170616005
0 0 -0.432080025713542
0 0 -0.433991897945823
0 0 -0.432080025713543
0 0 -0.426351706160052
0 0 -0.416829152768425
0 0 -0.403550467022434
0 0 -0.386571276125584
0 0 -0.365967064019434
0 0 -0.34183623322822
0 0 -0.31430394443437
0 0 -0.283526787816999
0 0 -0.2496983442915
0 0 -0.213055691592565
0 0 -0.173886901058477
0 0 -0.132539542096795
0 0 -0.0894301842394233
0 0 -0.0450548044445379
0 0 0
0 0 0
0 0 -0.0469812461500705
0 0 -0.0932613962250705
0 0 -0.138232718204433
0 0 -0.181379121576523
0 0 -0.222265339346229
0 0 -0.260526800596439
0 0 -0.295860290957254
0 0 -0.328015503957643
0 0 -0.356787514684899
0 0 -0.382010183353158
0 0 -0.403550467022434
0 0 -0.421303605298158
0 0 -0.435189138418538
0 0 -0.445147716008239
0 0 -0.451138658255567
0 0 -0.453138237743857
0 0 -0.451138658255568
0 0 -0.445147716008242
0 0 -0.435189138418541
0 0 -0.421303605298163
0 0 -0.40355046702244
0 0 -0.382010183353164
0 0 -0.356787514684904
0 0 -0.328015503957646
0 0 -0.295860290957256
0 0 -0.260526800596439
0 0 -0.222265339346228
0 0 -0.181379121576522
0 0 -0.138232718204431
0 0 -0.0932613962250692
0 0 -0.0469812461500698
0 0 0
0 0 0
0 0 -0.0484857085292797
0 0 -0.0962535839130096
0 0 -0.142679548342424
0 0 -0.187231913061651
0 0 -0.229460856640615
0 0 -0.268988514606455
0 0 -0.305499774440001
0 0 -0.338733883894848
0 0 -0.368476917287502
0 0 -0.394555123745765
0 0 -0.416829152768432
0 0 -0.435189138418542
0 0 -0.449550613498042
0 0 -0.459851222024952
0 0 -0.466048199129269
0 0 -0.468116591669847
0 0 -0.46604819912927
0 0 -0.459851222024955
0 0 -0.449550613498047
0 0 -0.435189138418548
0 0 -0.416829152768438
0 0 -0.394555123745772
0 0 -0.368476917287508
0 0 -0.338733883894853
0 0 -0.305499774440004
0 0 -0.268988514606456
0 0 -0.229460856640615
0 0 -0.187231913061651
0 0 -0.142679548342423
0 0 -0.0962535839130087
0 0 -0.0484857085292792
0 0 0
0 0 0
0 0 -0.0495635005858053
0 0 -0.0983972734337946
0 0 -0.145865612678409
0 0 -0.191425712340813
0 0 -0.23461735033851
0 0 -0.275053132417113
0 0 -0.312409386782673
0 0 -0.346417819617997
0 0 -0.376857983916494
0 0 -0.40355059597024
0 0 -0.426351706160065
0 0 -0.445147716008249
0 0 -0.459851222024958
0 0 -0.47039766202565
0 0 -0.476742738576828
0 0 -0.478860596790207
0 0 -0.47674273857683
0 0 -0.470397662025653
0 0 -0.459851222024962
0 0 -0.445147716008256
0 0 -0.426351706160072
0 0 -0.403550595970247
0 0 -0.376857983916501
0 0 -0.346417819618003
0 0 -0.312409386782678
0 0 -0.275053132417115
0 0 -0.234617350338511
0 0 -0.191425712340813
0 0 -0.145865612678409
0 0 -0.0983972734337941
0 0 -0.0495635005858051
0 0 0
0 0 0
0 0 -0.0502114175085223
0 0 -0.0996859938716517
0 0 -0.147781064876083
0 0 -0.193947163894658
0 0 -0.23771782706516
0 0 -0.278699929358265
0 0 -0.316564640221952
0 0 -0.351039109805394
0 0 -0.381898942289346
0 0 -0.40896149633536
0 0 -0.432080025713562
0 0 -0.451138658255582
0 0 -0.46604819912928
0 0 -0.476742738576835
0 0 -0.483177042199287
0 0 -0.485324703467822
0 0 -0.483177042199288
0 0 -0.476742738576838
0 0 -0.466048199129286
0 0 -0.45113865825559
0 0 -0.432080025713571
0 0 -0.408961496335369
0 0 -0.381898942289354
0 0 -0.351039109805401
0 0 -0.316564640221958
0 0 -0.278699929358269
0 0 -0.237717827065162
0 0 -0.193947163894659
0 0 -0.147781064876083
0 0 -0.0996859938716517
0 0 -0.0502114175085223
0 0 0
0 0 0
0 0 -0.0504275939123861
0 0 -0.100115979357495
0 0 -0.148420175695508
0 0 -0.194788497695181
0 0 -0.238752400709783
0 0 -0.27991684738274
0 0 -0.31795128381116
0 0 -0.352581336386547
0 0 -0.383581287102022
0 0 -0.410767369150481
0 0 -0.433991897945849
0 0 -0.453138237743879
0 0 -0.468116591669864
0 0 -0.478860596790219
0 0 -0.485324703467828
0 0 -0.487482319519197
0 0 -0.485324703467831
0 0 -0.478860596790224
0 0 -0.468116591669871
0 0 -0.453138237743887
0 0 -0.433991897945858
0 0 -0.410767369150491
0 0 -0.383581287102032
0 0 -0.352581336386555
0 0 -0.317951283811167
0 0 -0.279916847382744
0 0 -0.238752400709786
0 0 -0.194788497695183
0 0 -0.148420175695509
0 0 -0.100115979357495
0 0 -0.0504275939123863
0 0 0
0 0 0
0 0 -0.0502114175085234
0 0 -0.099685993871654
0 0 -0.147781064876086
0 0 -0.193947163894663
0 0 -0.237717827065166
0 0 -0.278699929358273
0 0 -0.316564640221961
0 0 -0.351039109805403
0 0 -0.381898942289356
0 0 -0.408961496335371
0 0 -0.432080025713574
0 0 -0.451138658255595
0 0 -0.466048199129293
0 0 -0.476742738576848
0 0 -0.483177042199301
0 0 -0.485324703467837
0 0 -0.483177042199304
0 0 -0.476742738576854
0 0 -0.466048199129301
0 0 -0.451138658255604
0 0 -0.432080025713584
0 0 -0.408961496335381
0 0 -0.381898942289366
0 0 -0.351039109805412
0 0 -0.316564640221968
0 0 -0.278699929358278
0 0 -0.23771782706517
0 0 -0.193947163894665
0 0 -0.147781064876088
0 0 -0.0996859938716549
0 0 -0.0502114175085238
0 0 0
0 0 0
0 0 -0.0495635005858076
0 0 -0.0983972734337991
0 0 -0.145865612678416
0 0 -0.191425712340822
0 0 -0.234617350338522
0 0 -0.275053132417126
0 0 -0.31240938678269
0 0 -0.346417819618015
0 0 -0.376857983916514
0 0 -0.403550595970262
0 0 -0.426351706160088
0 0 -0.445147716008274
0 0 -0.459851222024983
0 0 -0.470397662025677
0 0 -0.476742738576857
0 0 -0.478860596790236
0 0 -0.47674273857686
0 0 -0.470397662025682
0 0 -0.459851222024991
0 0 -0.445147716008284
0 0 -0.426351706160098
0 0 -0.403550595970271
0 0 -0.376857983916524
0 0 -0.346417819618024
0 0 -0.312409386782697
0 0 -0.275053132417132
0 0 -0.234617350338526
0 0 -0.191425712340826
0 0 -0.145865612678418
0 0 -0.0983972734338004
0 0 -0.0495635005858082
0 0 0
0 0 0
0 0 -0.0484857085292831
0 0 -0.0962535839130162
0 0 -0.142679548342434
0 0 -0.187231913061665
0 0 -0.229460856640631
0 0 -0.268988514606475
0 0 -0.305499774440024
0 0 -0.338733883894875
0 0 -0.368476917287532
0 0 -0.394555123745797
0 0 -0.416829152768467
0 0 -0.435189138418579
0 0 -0.44955061349808
0 0 -0.459851222024991
0 0 -0.466048199129309
0 0 -0.468116591669888
0 0 -0.466048199129312
0 0 -0.459851222024996
0 0 -0.449550613498087
0 0 -0.435189138418587
0 0 -0.416829152768475
0 0 -0.394555123745806
0 0 -0.36847691728754
0 0 -0.338733883894883
0 0 -0.305499774440031
0 0 -0.26898851460648
0 0 -0.229460856640636
0 0 -0.187231913061668
0 0 -0.142679548342436
0 0 -0.0962535839130177
0 0 -0.0484857085292837
0 0 0
0 0 0
0 0 -0.0469812461500748
0 0 -0.093261396225079
0 0 -0.138232718204446
0 0 -0.18137912157654
0 0 -0.22226533934625
0 0 -0.260526800596465
0 0 -0.295860290957284
0 0 -0.328015503957677
0 0 -0.356787514684937
0 0 -0.3820101833532
0 0 -0.403550467022479
0 0 -0.421303605298205
0 0 -0.435189138418586
0 0 -0.445147716008289
0 0 -0.451138658255618
0 0 -0.453138237743909
0 0 -0.45113865825562
0 0 -0.445147716008294
0 0 -0.435189138418592
0 0 -0.421303605298211
0 0 -0.403550467022486
0 0 -0.382010183353207
0 0 -0.356787514684944
0 0 -0.328015503957684
0 0 -0.29586029095729
0 0 -0.26052680059647
0 0 -0.222265339346255
0 0 -0.181379121576543
0 0 -0.138232718204448
0 0 -0.0932613962250803
0 0 -0.0469812461500753
0 0 0
0 0 0
0 0 -0.0450548044445438
0 0 -0.0894301842394348
0 0 -0.132539542096812
0 0 -0.173886901058499
0 0 -0.213055691592591
0 0 -0.249698344291531
0 0 -0.283526787817033
0 0 -0.314303944434408
0 0 -0.341836233228262
0 0 -0.365967064019479
0 0 -0.386571276125632
0 0 -0.403550467022486
0 0 -0.41682915276848
0 0 -0.426351706160109
0 0 -0.432080025713603
0 0 -0.433991897945885
0 0 -0.432080025713604
0 0 -0.426351706160112
0 0 -0.416829152768484
0 0 -0.40355046702249
0 0 -0.386571276125637
0 0 -0.365967064019484
0 0 -0.341836233228268
0 0 -0.314303944434413
0 0 -0.283526787817039
0 0 -0.249698344291535
0 0 -0.213055691592595
0 0 -0.173886901058502
0 0 -0.132539542096814
0 0 -0.0894301842394359
0 0 -0.0450548044445442
0 0 0
0 0 0
0 0 -0.042712772295251
0 0 -0.084772855368515
0 0 -0.125619673756361
0 0 -0.164781923275036
0 0 -0.201865853471363
0 0 -0.236544520231713
0 0 -0.268548105137103
0 0 -0.297655373351584
0 0 -0.323686246183779
0 0 -0.346495435835496
0 0 -0.365967064019484
0 0 -0.382010183353211
0 0 -0.394555123745816
0 0 -0.403550595970287
0 0 -0.408961496335404
0 0 -0.41076736915052
0 0 -0.408961496335404
0 0 -0.403550595970289
0 0 -0.394555123745818
0 0 -0.382010183353214
0 0 -0.365967064019487
0 0 -0.3464954358355
0 0 -0.323686246183784
0 0 -0.297655373351589
0 0 -0.268548105137108
0 0 -0.236544520231717
0 0 -0.201865853471366
0 0 -0.164781923275039
0 0 -0.125619673756362
0 0 -0.0847728553685159
0 0 -0.0427127722952514
0 0 0
0 0 0
0 0 -0.0399635208132546
0 0 -0.0793063293570315
0 0 -0.117498890453888
0 0 -0.154099183147745
0 0 -0.188740357290084
0 0 -0.22111959309521
0 0 -0.250988246628345
0 0 -0.278143313737597
0 0 -0.302420136001674
0 0 -0.323686246183783
0 0 -0.34183623322827
0 0 -0.356787514684952
0 0 -0.368476917287553
0 0 -0.376857983916542
0 0 -0.38189894228939
0 0 -0.383581287102062
0 0 -0.38189894228939
0 0 -0.376857983916542
0 0 -0.368476917287554
0 0 -0.356787514684954
0 0 -0.341836233228273
0 0 -0.323686246183787
0 0 -0.302420136001678
0 0 -0.278143313737602
0 0 -0.25098824662835
0 0 -0.221119593095214
0 0 -0.188740357290086
0 0 -0.154099183147747
0 0 -0.117498890453889
0 0 -0.0793063293570322
0 0 -0.0399635208132549
0 0 0
0 0 0
0 0 -0.0368177711863678
0 0 -0.0730522902490022
0 0 -0.108210250946817
0 0 -0.141883580556777
0 0 -0.173736336208364
0 0 -0.203493137784081
0 0 -0.230929178840606
0 0 -0.255861777970248
0 0 -0.2781433137376
0 0 -0.29765537335159
0 0 -0.314303944434418
0 0 -0.328015503957693
0 0 -0.338733883894897
0 0 -0.346417819618043
0 0 -0.351039109805436
0 0 -0.352581336386585
0 0 -0.351039109805436
0 0 -0.346417819618043
0 0 -0.338733883894897
0 0 -0.328015503957694
0 0 -0.31430394443442
0 0 -0.297655373351593
0 0 -0.278143313737604
0 0 -0.255861777970252
0 0 -0.23092917884061
0 0 -0.203493137784084
0 0 -0.173736336208367
0 0 -0.141883580556779
0 0 -0.108210250946818
0 0 -0.0730522902490027
0 0 -0.036817771186368
0 0 0
0 0 0
0 0 -0.0332890648560984
0 0 -0.0660381482982578
0 0 -0.0977955818143719
0 0 -0.128191950347633
0 0 -0.156926092706749
0 0 -0.183753113499573
0 0 -0.208474356759659
0 0 -0.230929178840608
0 0 -0.250988246628349
0 0 -0.26854810513711
0 0 -0.283526787817045
0 0 -0.2958602909573
0 0 -0.305499774440046
0 0 -0.312409386782716
0 0 -0.316564640221992
0 0 -0.317951283811195
0 0 -0.316564640221991
0 0 -0.312409386782715
0 0 -0.305499774440046
0 0 -0.295860290957301
0 0 -0.283526787817047
0 0 -0.268548105137113
0 0 -0.250988246628353
0 0 -0.230929178840611
0 0 -0.208474356759662
0 0 -0.183753113499575
0 0 -0.15692609270675
0 0 -0.128191950347634
0 0 -0.0977955818143725
0 0 -0.066038148298258
0 0 -0.0332890648560985
0 0 0
0 0 0
0 0 -0.0293943613181806
0 0 -0.0582982741735741
0 0 -0.0863073878352109
0 0 -0.113095666350751
0 0 -0.138400370306497
0 0 -0.162009738756166
0 0 -0.183753113499574
0 0 -0.203493137784084
0 0 -0.221119593095214
0 0 -0.23654452023172
0 0 -0.249698344291541
0 0 -0.26052680059648
0 0 -0.268988514606494
0 0 -0.27505313241715
0 0 -0.2786999293583
0 0 -0.279916847382771
0 0 -0.2786999293583
0 0 -0.27505313241715
0 0 -0.268988514606494
0 0 -0.260526800596481
0 0 -0.249698344291543
0 0 -0.236544520231723
0 0 -0.221119593095217
0 0 -0.203493137784087
0 0 -0.183753113499576
0 0 -0.162009738756168
0 0 -0.138400370306498
0 0 -0.113095666350751
0 0 -0.0863073878352112
0 0 -0.0582982741735742
0 0 -0.0293943613181806
0 0 0
0 0 0
0 0 -0.025154814289626
0 0 -0.0498756001932203
0 0 -0.0738113392727253
0 0 -0.0966840131711537
0 0 -0.11827253943815
0 0 -0.138400370306498
0 0 -0.15692609270675
0 0 -0.173736336208367
0 0 -0.188740357290088
0 0 -0.20186585347137
0 0 -0.213055691592601
0 0 -0.222265339346263
0 0 -0.229460856640648
0 0 -0.234617350338542
0 0 -0.237717827065189
0 0 -0.238752400709809
0 0 -0.237717827065189
0 0 -0.234617350338541
0 0 -0.229460856640648
0 0 -0.222265339346265
0 0 -0.213055691592603
0 0 -0.201865853471372
0 0 -0.188740357290091
0 0 -0.173736336208369
0 0 -0.156926092706752
0 0 -0.138400370306499
0 0 -0.118272539438151
0 0 -0.0966840131711541
0 0 -0.0738113392727254
0 0 -0.0498756001932202
0 0 -0.0251548142896259
0 0 0
0 0 0
0 0 -0.020596795132319